# vtk DataFile Version 4.1
vtk output
ASCII
DATASET POLYDATA
POINTS 4 float
15174.6 57179 29298.9
62001.8 28486.9 42479.2
52511.2 63494.9 56262
24921.3 50130 67966.6
VERTICES 4 8
1 0
1 1
1 2
1 3
POINT_DATA 4
FIELD FieldData 1
Labels 1 4 float
0
1
2
3
