# vtk DataFile Version 4.1
vtk output
ASCII
DATASET POLYDATA
POINTS 4 float
27398.3 52089.7 68930.5
50597.6 63781.9 48392
13175.1 56172.7 28596
62001.8 28486.9 42479.2
VERTICES 4 8
1 0
1 1
1 2
1 3
POINT_DATA 4
FIELD FieldData 1
Labels 1 4 float
0
1
2
3
