# vtk DataFile Version 4.1
vtk output
ASCII
DATASET POLYDATA
POINTS 3 float
64941.9 75943.3 23150.5
22807 94075.4 29998
40462.3 84933.6 53708
VERTICES 3 6
1 0
1 1
1 2
POINT_DATA 3
FIELD FieldData 1
Labels 1 3 float
0
1
2
