# vtk DataFile Version 4.1
vtk output
ASCII
DATASET POLYDATA
POINTS 31 float
58351.2 32108.3 33268
55993.2 64731.3 59648
60588.2 18782.3 18348
65872.2 54093.3 57458
68112.2 24722.3 37978
68482.2 26532.3 35068
70262.2 41088.3 47568
54794.2 63112.3 34798
63502.2 32890.3 61388
64382.2 29694.3 50008
44737.2 65807.3 75678
32612.2 64681.3 66988
41159.2 69730.3 53728
24479.2 61018.3 69058
30318.2 56575.3 82478
24443.2 51824.3 69648
24187.2 53588.3 69708
42334.2 22077.3 56208
19230.2 31482.3 58868
19179.2 31740.3 59018
35169.2 67242.3 36328
22323.2 74391.3 28168
23695.2 74902.3 27798
12029.2 64459.3 17848
11642.2 58292.3 36268
13466.2 56146.3 42628
9377.2 54788.3 12228
8084.2 52482.3 34158
9650.2 51479.3 38048
6730.2 43907.3 31728
14753.2 30878.3 17088
VERTICES 31 62
1 0
1 1
1 2
1 3
1 4
1 5
1 6
1 7
1 8
1 9
1 10
1 11
1 12
1 13
1 14
1 15
1 16
1 17
1 18
1 19
1 20
1 21
1 22
1 23
1 24
1 25
1 26
1 27
1 28
1 29
1 30
POINT_DATA 31
FIELD FieldData 1
Labels 1 31 float
3
1
3
1
3
3
3
1
3
3
0
0
1
0
0
0
0
3
0
0
1
2
2
2
2
2
2
2
2
2
2
