# vtk DataFile Version 4.1
vtk output
ASCII
DATASET POLYDATA
POINTS 16 float
26257.2 104990 38878
15742.2 99660.3 14558
42778.2 90680.3 58558
37390.2 88820.3 52518
36993.2 91610.3 50378
51532.2 74692.3 69148
91632.2 67220.3 23818
62462.2 79293.3 17668
21222.2 71604.3 55888
39588.2 105590 31738
58963.2 96440.3 44618
16644.2 80377.3 32718
15803.2 79759.3 32098
53216.2 78043.3 23928
52457.2 79216.3 27188
34357.2 80687.3 44848
VERTICES 16 32
1 0
1 1
1 2
1 3
1 4
1 5
1 6
1 7
1 8
1 9
1 10
1 11
1 12
1 13
1 14
1 15
POINT_DATA 16
FIELD FieldData 1
Labels 1 16 float
1
1
2
2
2
2
0
0
1
1
2
1
1
0
0
1
